 Gaussian 16, Revision B.01,
 Gaussian 16:  EM64M-G16RevB.01 20-Dec-2017

 ------------------------------------------------
 # opt(ts,calcfc,noeigentest) freq b3lyp/6-31g(d)
 ------------------------------------------------

 --------------------
 transition structure
 --------------------
 Symbolic Z-matrix:
 Charge =  0 Multiplicity = 1

 SCF Done:  E(RB3LYP) =  -270.461121387     A.U. after   14 cycles
 Optimization completed.
    -- Stationary point found.
 Normal termination of Gaussian 16 at Mon May  7 11:30:19 2018.

 --------------------------------------------------------------------
 #N Geom=AllCheck Guess=TCheck SCRF=Check GenChk RB3LYP/6-31G(d) Freq
 --------------------------------------------------------------------

 Structure from the checkpoint file:  "claisen_ts.chk"
 --------------------
 transition structure
 --------------------
 Charge =  0 Multiplicity = 1

                         Standard orientation:
 ---------------------------------------------------------------------
 Center     Atomic      Atomic             Coordinates (Angstroms)
 Number     Number       Type             X           Y           Z
 ---------------------------------------------------------------------
      1          6           0       -1.466309    0.784168   -0.289984
      2          6           0       -1.291057   -0.472055    0.261839
      3          8           0       -0.511026   -1.358456   -0.252221
      4          6           0        1.285570   -0.900284    0.182034
      5          6           0        1.374702    0.412704   -0.301796
      6          6           0        0.668679    1.425295    0.322236
      7          1           0       -2.145896    1.492398    0.178794
      8          1           0       -1.225400    0.953689   -1.332994
      9          1           0       -1.676663   -0.646151    1.281812
     10          1           0        1.766394   -1.711906   -0.353320
     11          1           0        1.173540   -1.069495    1.248816
     12          1           0        1.692496    0.557034   -1.332675
     13          1           0        0.629027    2.424945   -0.101698
     14          1           0        0.445205    1.368175    1.383056
 ---------------------------------------------------------------------

 SCF Done:  E(RB3LYP) =  -270.461121387     A.U. after    1 cycles

 The electronic state is 1-A.
 Alpha  occ. eigenvalues --  -19.13400 -10.22917 -10.22252 -10.21110 -10.18645
 Alpha  occ. eigenvalues --  -10.18425  -1.00187  -0.79743  -0.73271  -0.67404
 Alpha  occ. eigenvalues --   -0.56854  -0.55476  -0.48640  -0.46006  -0.44252
 Alpha  occ. eigenvalues --   -0.43137  -0.39563  -0.38592  -0.37046  -0.36558
 Alpha  occ. eigenvalues --   -0.27175  -0.25233  -0.22261
 Alpha virt. eigenvalues --   -0.02719   0.01061   0.09107   0.10848   0.11810
 Alpha virt. eigenvalues --    0.13458   0.14677   0.16843   0.18231   0.18857
 Alpha virt. eigenvalues --    0.20706   0.30026   0.30452   0.33869   0.35125

 Mulliken charges:
               1
     1  C   -0.346694
     2  C    0.199546
     3  O   -0.457485
     4  C   -0.208473
     5  C   -0.049498
     6  C   -0.323555
     7  H    0.140176
     8  H    0.161982
     9  H    0.091859
    10  H    0.170919
    11  H    0.165249
    12  H    0.132635
    13  H    0.161403
    14  H    0.161937
 Sum of Mulliken charges =  -0.00000

 Dipole moment (field-independent basis, Debye):
    X=              0.7197    Y=              1.8014    Z=              0.8009  Tot=              2.0987
 Quadrupole moment (field-independent basis, Debye-Ang):
   XX=            -36.6360   YY=            -37.0218   ZZ=            -34.7718
   XY=             -3.1070   XZ=             -1.5681   YZ=             -1.4287

  Exact polarizability:  71.046  -5.602  65.283  -4.076  -2.512  47.559
 Approx polarizability: 120.556  -8.605 117.543  -5.438  -0.911  70.023

 ******    1 imaginary frequencies (negative Signs) ******

                      1                      2                      3
                      A                      A                      A
 Frequencies --   -483.4122               169.3112               269.6219
 Red. masses --      8.9495                 2.9041                 6.5566
 Frc consts  --      1.2322                 0.0490                 0.2808
 IR Inten    --     18.4999                 3.0527                20.2352

                      4                      5                      6
                      A                      A                      A
 Frequencies --    311.1570               379.3617               427.0425
 Red. masses --      3.2449                 2.2174                 2.2786
 Frc consts  --      0.1851                 0.1880                 0.2448
 IR Inten    --      2.1301                 1.0992                 6.4624

                      7                      8                      9
                      A                      A                      A
 Frequencies --    464.1935               530.3299               737.0433
 Red. masses --      1.9450                 2.3236                 1.3824
 Frc consts  --      0.2469                 0.3850                 0.4425
 IR Inten    --      0.4017                12.8969                25.6362

                     10                     11                     12
                      A                      A                      A
 Frequencies --    808.2233               875.1398               897.8114
 Red. masses --      1.2281                 1.1489                 1.2509
 Frc consts  --      0.4727                 0.5184                 0.5941
 IR Inten    --      4.5114                36.8154                 5.4719

                     13                     14                     15
                      A                      A                      A
 Frequencies --    962.2433               995.2676              1001.6875
 Red. masses --      1.0712                 1.4079                 1.4378
 Frc consts  --      0.5844                 0.8217                 0.8500
 IR Inten    --      0.3963                21.8113                 5.4576

                     16                     17                     18
                      A                      A                      A
 Frequencies --   1010.8771              1037.5116              1057.4665
 Red. masses --      1.3077                 1.3673                 1.5371
 Frc consts  --      0.7873                 0.8671                 1.0127
 IR Inten    --     10.9494                 1.5831                 1.7474

                     19                     20                     21
                      A                      A                      A
 Frequencies --   1091.2083              1267.4636              1277.3162
 Red. masses --      1.2098                 1.5916                 2.1980
 Frc consts  --      0.8488                 1.5064                 2.1129
 IR Inten    --      1.8684                10.1827                13.5949

                     22                     23                     24
                      A                      A                      A
 Frequencies --   1302.3846              1359.0854              1449.9030
 Red. masses --      1.8160                 1.5928                 1.3296
 Frc consts  --      1.8148                 1.7335                 1.6469
 IR Inten    --      0.1269                12.9883                 9.9215

                     25                     26                     27
                      A                      A                      A
 Frequencies --   1490.1065              1550.8654              1565.3557
 Red. masses --      1.4090                 1.3756                 1.6940
 Frc consts  --      1.8433                 1.9494                 2.4457
 IR Inten    --      9.4896                 8.1214                 9.8302

                     28                     29                     30
                      A                      A                      A
 Frequencies --   1638.5863              2991.3641              3166.8889
 Red. masses --      3.4295                 1.0848                 1.0608
 Frc consts  --      5.4253                 5.7191                 6.2682
 IR Inten    --     39.8331                98.5736                 5.8696

                     31                     32                     33
                      A                      A                      A
 Frequencies --   3168.7916              3173.2625              3176.5564
 Red. masses --      1.0698                 1.0662                 1.0696
 Frc consts  --      6.3290                 6.3259                 6.3589
 IR Inten    --     17.6987                13.2073                 4.2604

                     34                     35                     36
                      A                      A                      A
 Frequencies --   3251.6095              3261.6672              3264.3300
 Red. masses --      1.1165                 1.1162                 1.1147
 Frc consts  --      6.9553                 6.9966                 6.9982
 IR Inten    --      6.9578                10.6242                 7.4466

 - Thermochemistry -
 -------------------
 Temperature   298.150 Kelvin.  Pressure   1.00000 Atm.
 Atom     1 has atomic number  6 and mass  12.00000

 Molecular mass:    84.05751 amu.
 Principal axes and moments of inertia in atomic units:
                           1         2         3
     Eigenvalues --   375.07755 464.67102 736.76695
           X            0.98340  -0.18070  -0.01644
           Y            0.18037   0.98340  -0.01993
           Z            0.01977   0.01663   0.99967
 This molecule is an asymmetric top.
 Rotational symmetry number  1.
 Rotational temperatures (Kelvin)      0.23092     0.18640     0.11756
 Rotational constants (GHZ):           4.81165     3.88391     2.44954
    1 imaginary frequencies ignored.
 Zero-point vibrational energy     307326.8 (Joules/Mol)
                                   73.45288 (Kcal/Mol)
 Warning -- explicit consideration of   7 degrees of freedom as
           vibrations may cause significant error
 Vibrational temperatures:    243.60   387.93   447.69   545.82   614.42
          (Kelvin)            667.87   763.03  1060.44  1162.85  1259.13
                             1291.75  1384.45  1431.97  1441.20  1454.43
                             1492.75  1521.46  1570.01  1823.60  1837.77
                             1873.84  1955.42  2086.09  2143.93  2231.35
                             2252.20  2357.56  4303.91  4556.45  4559.18
                             4565.62  4570.36  4678.34  4692.81  4696.64

 Zero-point correction=                           0.117055 (Hartree/Particle)
 Thermal correction to Energy=                    0.123026
 Thermal correction to Enthalpy=                  0.123970
 Thermal correction to Gibbs Free Energy=         0.087988
 Sum of electronic and zero-point Energies=           -270.344067
 Sum of electronic and thermal Energies=              -270.338095
 Sum of electronic and thermal Enthalpies=            -270.337151
 Sum of electronic and thermal Free Energies=         -270.373133

                     E (Thermal)             CV                S
                      KCal/Mol        Cal/Mol-Kelvin    Cal/Mol-Kelvin
 Total                   77.200             22.512             75.731
 Electronic               0.000              0.000              0.000
 Translational            0.889              2.981             39.200
 Rotational               0.889              2.981             26.354
 Vibrational             75.423             16.551             10.177
 Vibration     1          0.625              1.880              2.443
 Vibration     2          0.674              1.729              1.599
 Vibration     3          0.700              1.652              1.356
 Vibration     4          0.749              1.514              1.042
 Vibration     5          0.789              1.411              0.868
 Vibration     6          0.822              1.329              0.754
 Vibration     7          0.885              1.183              0.586

 Optimization completed.
    -- Stationary point found.
 Normal termination of Gaussian 16 at Mon May  7 11:31:21 2018.
