 Gaussian 16, Revision B.01,
 Gaussian 16:  EM64M-G16RevB.01 20-Dec-2017

 --------------------------------------------------
 #opt freq B3LYP/def2tzvp empiricaldispersion=GD3BJ
 --------------------------------------------------

 ------------
 acetaldehyde
 ------------
 Symbolic Z-matrix:
 Charge =  0 Multiplicity = 1

 SCF Done:  E(RB3LYP) =  -153.902045113     A.U. after   13 cycles
 SCF Done:  E(RB3LYP) =  -153.902085355     A.U. after   11 cycles
 SCF Done:  E(RB3LYP) =  -153.901949963     A.U. after   11 cycles
 SCF Done:  E(RB3LYP) =  -153.902282579     A.U. after   10 cycles
 SCF Done:  E(RB3LYP) =  -153.902993267     A.U. after   13 cycles
 SCF Done:  E(RB3LYP) =  -153.903370875     A.U. after   12 cycles
 SCF Done:  E(RB3LYP) =  -153.903716142     A.U. after   11 cycles
 SCF Done:  E(RB3LYP) =  -153.903858081     A.U. after   11 cycles
 SCF Done:  E(RB3LYP) =  -153.903876153     A.U. after    9 cycles
 SCF Done:  E(RB3LYP) =  -153.903877310     A.U. after    8 cycles
 Optimization completed.
    -- Stationary point found.
 Normal termination of Gaussian 16 at Mon May  7 11:07:48 2018.

 --------------------------------------------------------------------
 #N Geom=AllCheck Guess=TCheck SCRF=Check GenChk RB3LYP/def2TZVP Freq
 --------------------------------------------------------------------

 Structure from the checkpoint file:  "acetaldehyde.chk"
 ------------
 acetaldehyde
 ------------
 Charge =  0 Multiplicity = 1

                         Standard orientation:
 ---------------------------------------------------------------------
 Center     Atomic      Atomic             Coordinates (Angstroms)
 Number     Number       Type             X           Y           Z
 ---------------------------------------------------------------------
      1          1           0        0.304820    1.505257   -0.000194
      2          6           0        0.232964    0.396077    0.000105
      3          6           0       -1.164999   -0.148418   -0.000070
      4          8           0        1.231027   -0.275710   -0.000036
      5          1           0       -1.701483    0.226129   -0.876743
      6          1           0       -1.700807    0.224876    0.877659
      7          1           0       -1.158538   -1.236536   -0.000642
 ---------------------------------------------------------------------

 SCF Done:  E(RB3LYP) =  -153.903877310     A.U. after    1 cycles

 The electronic state is 1-A.
 Alpha  occ. eigenvalues --  -19.13196 -10.26948 -10.18694  -1.05885  -0.76245
 Alpha  occ. eigenvalues --   -0.58826  -0.48806  -0.45447  -0.44668  -0.40766
 Alpha  occ. eigenvalues --   -0.37634  -0.26749
 Alpha virt. eigenvalues --   -0.03574   0.03855   0.07117   0.09378   0.10190
 Alpha virt. eigenvalues --    0.13227   0.15708   0.20515   0.22569   0.23962
 Alpha virt. eigenvalues --    0.25606   0.30168   0.37836   0.38705   0.41102

 Mulliken charges:
               1
     1  H    0.054330
     2  C    0.121212
     3  C   -0.270976
     4  O   -0.260599
     5  H    0.119279
     6  H    0.119271
     7  H    0.117483
 Sum of Mulliken charges =  -0.00000

 Dipole moment (field-independent basis, Debye):
    X=             -2.5742    Y=              1.1252    Z=              0.0002  Tot=              2.8094
 Quadrupole moment (field-independent basis, Debye-Ang):
   XX=            -21.1454   YY=            -18.1968   ZZ=            -17.9897
   XY=              0.9825   XZ=              0.0001   YZ=             -0.0003

  Exact polarizability:  33.757  -1.789  29.314  -0.002  -0.000  21.725
 Approx polarizability:  46.883  -7.055  40.381  -0.005   0.001  30.127

                      1                      2                      3
                      A                      A                      A
 Frequencies --    158.1897               511.2182               775.8473
 Red. masses --      1.2398                 2.5408                 1.1223
 Frc consts  --      0.0183                 0.3912                 0.3980
 IR Inten    --      0.8706                13.3338                 0.8242

                      4                      5                      6
                      A                      A                      A
 Frequencies --    888.6805              1131.5972              1137.9758
 Red. masses --      2.1605                 2.0991                 1.7793
 Frc consts  --      1.0053                 1.5836                 1.3576
 IR Inten    --      9.6883                25.3408                 0.2780

                      7                      8                      9
                      A                      A                      A
 Frequencies --   1379.5136              1425.1418              1460.1460
 Red. masses --      1.2538                 1.1965                 1.0609
 Frc consts  --      1.4059                 1.4318                 1.3327
 IR Inten    --     25.6412                 9.8600                21.7246

                     10                     11                     12
                      A                      A                      A
 Frequencies --   1469.3140              1813.2743              2866.9615
 Red. masses --      1.0472                 9.2914                 1.0821
 Frc consts  --      1.3320                17.9995                 5.2402
 IR Inten    --     10.3730               188.2177               125.4307

                     13                     14                     15
                      A                      A                      A
 Frequencies --   3026.6267              3078.6922              3140.3475
 Red. masses --      1.0369                 1.0980                 1.1021
 Frc consts  --      5.5964                 6.1316                 6.4038
 IR Inten    --      2.1982                 6.9550                 9.5245

 - Thermochemistry -
 -------------------
 Temperature   298.150 Kelvin.  Pressure   1.00000 Atm.
 Atom     1 has atomic number  1 and mass   1.00783

 Molecular mass:    44.02621 amu.
 Principal axes and moments of inertia in atomic units:
                           1         2         3
     Eigenvalues --    31.43404 177.23376 197.59029
           X            0.99967   0.02561  -0.00001
           Y           -0.02561   0.99967  -0.00007
           Z            0.00001   0.00007   1.00000
 This molecule is an asymmetric top.
 Rotational symmetry number  1.
 Rotational temperatures (Kelvin)      2.75542     0.48870     0.43835
 Rotational constants (GHZ):          57.41360    10.18283     9.13375
 Zero-point vibrational energy     145128.1 (Joules/Mol)
                                   34.68645 (Kcal/Mol)
 Warning -- explicit consideration of   2 degrees of freedom as
           vibrations may cause significant error
 Vibrational temperatures:    227.60   735.53  1116.27  1278.61  1628.12
          (Kelvin)           1637.29  1984.81  2050.46  2100.82  2114.02
                             2608.90  4124.92  4354.64  4429.55  4518.26

 Zero-point correction=                           0.055276 (Hartree/Particle)
 Thermal correction to Energy=                    0.059167
 Thermal correction to Enthalpy=                  0.060111
 Thermal correction to Gibbs Free Energy=         0.030345
 Sum of electronic and zero-point Energies=           -153.848601
 Sum of electronic and thermal Energies=              -153.844710
 Sum of electronic and thermal Enthalpies=            -153.843766
 Sum of electronic and thermal Free Energies=         -153.873532

                     E (Thermal)             CV                S
                      KCal/Mol        Cal/Mol-Kelvin    Cal/Mol-Kelvin
 Total                   37.128             11.195             62.648
 Electronic               0.000              0.000              0.000
 Translational            0.889              2.981             37.273
 Rotational               0.889              2.981             21.625
 Vibrational             35.350              5.234              3.750
 Vibration     1          0.621              1.893              2.571
 Vibration     2          0.866              1.225              0.631

 Optimization completed.
    -- Stationary point found.
 Normal termination of Gaussian 16 at Mon May  7 11:08:31 2018.
