 Gaussian 16, Revision B.01,
 Gaussian 16:  EM64M-G16RevB.01 20-Dec-2017

 --------------------------------------------------
 #opt freq B3LYP/def2tzvp empiricaldispersion=GD3BJ
 --------------------------------------------------

 --------------------------
 acetaldehyde = [H]C(C)[D=O
 --------------------------
 Symbolic Z-matrix:
 Charge =  0 Multiplicity = 1

 SCF Done:  E(RB3LYP) =  -153.900660732     A.U. after   13 cycles
 SCF Done:  E(RB3LYP) =  -153.901932612     A.U. after   10 cycles
 SCF Done:  E(RB3LYP) =  -153.901996823     A.U. after    8 cycles
 SCF Done:  E(RB3LYP) =  -153.901998723     A.U. after    6 cycles
 Optimization completed.
    -- Stationary point found.
 Normal termination of Gaussian 16 at Mon May  7 11:09:24 2018.

 --------------------------------------------------------------------
 #N Geom=AllCheck Guess=TCheck SCRF=Check GenChk RB3LYP/def2TZVP Freq
 --------------------------------------------------------------------

 Structure from the checkpoint file:  "acetaldehyde.chk"
 --------------------------
 acetaldehyde = [H]C(C)[D=O
 --------------------------
 Charge =  0 Multiplicity = 1

                         Standard orientation:
 ---------------------------------------------------------------------
 Center     Atomic      Atomic             Coordinates (Angstroms)
 Number     Number       Type             X           Y           Z
 ---------------------------------------------------------------------
      1          1           0        0.337850    1.515009    0.000024
      2          6           0        0.238586    0.408994   -0.000012
      3          6           0       -1.167631   -0.134957    0.000001
      4          8           0        1.220903   -0.285563    0.000003
      5          1           0       -1.913113    0.659514    0.000004
      6          1           0       -1.308837   -0.767116    0.879244
      7          1           0       -1.308850   -0.767124   -0.879233
 ---------------------------------------------------------------------

 SCF Done:  E(RB3LYP) =  -153.901998723     A.U. after    1 cycles

 The electronic state is 1-A.
 Alpha  occ. eigenvalues --  -19.13168 -10.26997 -10.18584  -1.05914  -0.75921
 Alpha  occ. eigenvalues --   -0.58930  -0.48726  -0.45413  -0.44648  -0.40739
 Alpha  occ. eigenvalues --   -0.37384  -0.26749
 Alpha virt. eigenvalues --   -0.04286   0.04173   0.06450   0.10788   0.11290
 Alpha virt. eigenvalues --    0.14020   0.15882   0.20395   0.20602   0.24256
 Alpha virt. eigenvalues --    0.27873   0.31395   0.37686   0.38648   0.39486

 Mulliken charges:
               1
     1  H    0.069043
     2  C    0.111241
     3  C   -0.277425
     4  O   -0.265990
     5  H    0.100890
     6  H    0.131121
     7  H    0.131120
 Sum of Mulliken charges =  -0.00000

 Dipole moment (field-independent basis, Debye):
    X=             -2.4901    Y=              1.0575    Z=             -0.0000  Tot=              2.7053
 Quadrupole moment (field-independent basis, Debye-Ang):
   XX=            -21.2454   YY=            -18.1343   ZZ=            -17.9297
   XY=              1.1858   XZ=             -0.0000   YZ=              0.0000

  Exact polarizability:  32.924  -1.341  29.301   0.000   0.000  21.625
 Approx polarizability:  45.050  -5.959  40.486   0.000  -0.000  30.024

 ******    1 imaginary frequencies (negative Signs) ******

                      1                      2                      3
                      A                      A                      A
 Frequencies --   -175.8807               513.0858               751.3821
 Red. masses --      1.1941                 2.6929                 1.1766
 Frc consts  --      0.0218                 0.4177                 0.3914
 IR Inten    --      6.6782                12.4218                 1.5426

                      4                      5                      6
                      A                      A                      A
 Frequencies --    929.7926              1098.3728              1136.2547
 Red. masses --      2.3136                 1.9654                 1.7190
 Frc consts  --      1.1785                 1.3970                 1.3076
 IR Inten    --     13.1659                40.5222                 0.3395

                      7                      8                      9
                      A                      A                      A
 Frequencies --   1374.0088              1428.3721              1467.0223
 Red. masses --      1.2059                 1.1977                 1.0637
 Frc consts  --      1.3413                 1.4398                 1.3488
 IR Inten    --     15.2827                15.3699                13.5156

                     10                     11                     12
                      A                      A                      A
 Frequencies --   1475.3487              1808.1767              2874.8396
 Red. masses --      1.0469                10.0298                 1.0827
 Frc consts  --      1.3427                19.3207                 5.2722
 IR Inten    --      8.4785               178.0565               127.7875

                     13                     14                     15
                      A                      A                      A
 Frequencies --   3038.8301              3101.7183              3125.7552
 Red. masses --      1.0347                 1.0994                 1.1037
 Frc consts  --      5.6296                 6.2319                 6.3535
 IR Inten    --      1.5836                 3.6160                17.4549

 - Thermochemistry -
 -------------------
 Temperature   298.150 Kelvin.  Pressure   1.00000 Atm.
 Atom     1 has atomic number  1 and mass   1.00783

 Molecular mass:    44.02621 amu.
 Principal axes and moments of inertia in atomic units:
                           1         2         3
     Eigenvalues --    32.07567 176.20832 197.15498
           X            0.99957   0.02942   0.00000
           Y           -0.02942   0.99957   0.00001
           Z            0.00000  -0.00001   1.00000
 This molecule is an asymmetric top.
 Rotational symmetry number  1.
 Rotational temperatures (Kelvin)      2.70030     0.49154     0.43932
 Rotational constants (GHZ):          56.26512    10.24209     9.15392
    1 imaginary frequencies ignored.
 Zero-point vibrational energy     144287.3 (Joules/Mol)
                                   34.48550 (Kcal/Mol)
 Warning -- explicit consideration of   1 degrees of freedom as
           vibrations may cause significant error
 Vibrational temperatures:    738.22  1081.07  1337.76  1580.31  1634.82
          (Kelvin)           1976.89  2055.11  2110.72  2122.70  2601.56
                             4136.25  4372.20  4462.68  4497.26

 Zero-point correction=                           0.054956 (Hartree/Particle)
 Thermal correction to Energy=                    0.058219
 Thermal correction to Enthalpy=                  0.059163
 Thermal correction to Gibbs Free Energy=         0.030611
 Sum of electronic and zero-point Energies=           -153.847043
 Sum of electronic and thermal Energies=              -153.843780
 Sum of electronic and thermal Enthalpies=            -153.842835
 Sum of electronic and thermal Free Energies=         -153.871388

                     E (Thermal)             CV                S
                      KCal/Mol        Cal/Mol-Kelvin    Cal/Mol-Kelvin
 Total                   36.533              9.312             60.093
 Electronic               0.000              0.000              0.000
 Translational            0.889              2.981             37.273
 Rotational               0.889              2.981             21.638
 Vibrational             34.756              3.350              1.183
 Vibration     1          0.868              1.221              0.626

 Optimization completed.
    -- Stationary point found.
 Normal termination of Gaussian 16 at Mon May  7 11:10:07 2018.
